LIGGGHTS data file from DLA Simulation (hybrid granular bond/gran, unit system si)

31 atoms
15 atom types
-8.472000e-08 8.472000e-08 xlo xhi
-8.472000e-08 8.472000e-08 ylo yhi
0.000000e+00 2.015880e-07 zlo zhi

Atoms

1 1 -3.056715e-08 2.358280e-08 3.230229e-08 5.1500e-09 4.23e+03 1
2 7 -3.418572e-08 1.644395e-08 3.203610e-08 1.1150e-08 4.23e+03 1
3 3 -2.966093e-08 2.847991e-08 3.566191e-08 7.1500e-09 4.23e+03 1
4 2 -2.590833e-08 2.971514e-08 4.088856e-08 6.1500e-09 4.23e+03 1
5 2 -2.001244e-08 2.898260e-08 4.194101e-08 6.1500e-09 4.23e+03 1
6 4 -1.518921e-08 2.448099e-08 4.436053e-08 8.1500e-09 4.23e+03 1
7 8 -1.228799e-08 1.563338e-08 4.824452e-08 1.2150e-08 4.23e+03 1
8 4 1.619899e-08 1.814963e-08 5.137199e-08 8.1500e-09 4.23e+03 1
9 5 1.530382e-08 2.614746e-08 4.861011e-08 9.1500e-09 4.23e+03 1
10 12 4.557599e-09 2.212112e-08 5.584412e-08 1.8150e-08 4.23e+03 1
11 6 -2.421295e-10 9.027419e-09 5.743758e-08 1.0150e-08 4.23e+03 1
12 4 -5.389997e-09 8.501444e-09 5.003382e-08 8.1500e-09 4.23e+03 1
13 10 -1.515492e-09 3.505083e-08 6.432193e-08 1.5150e-08 4.23e+03 1
14 4 -1.200471e-08 3.299572e-08 6.864191e-08 8.1500e-09 4.23e+03 1
15 8 1.297494e-08 1.177746e-08 3.241383e-08 1.2150e-08 4.23e+03 1
16 5 2.088851e-08 1.273067e-08 3.926492e-08 9.1500e-09 4.23e+03 1
17 7 1.712054e-08 4.292355e-09 2.456454e-08 1.1150e-08 4.23e+03 1
18 3 2.825965e-08 9.481203e-09 3.969297e-08 7.1500e-09 4.23e+03 1
19 12 6.487343e-09 6.368339e-09 4.495894e-08 1.8150e-08 4.23e+03 1
20 13 1.920278e-08 -7.861642e-09 4.680954e-08 2.0150e-08 4.23e+03 1
21 4 -1.027729e-08 -2.525643e-08 2.109400e-08 8.1500e-09 4.23e+03 1
22 8 -1.216193e-09 -2.458529e-08 2.529475e-08 1.2150e-08 4.23e+03 1
23 6 7.770856e-09 -1.884076e-08 2.229537e-08 1.0150e-08 4.23e+03 1
24 11 -3.418303e-09 -1.501395e-08 3.605079e-08 1.7150e-08 4.23e+03 1
25 4 -5.532946e-10 -3.312915e-09 3.964766e-08 8.1500e-09 4.23e+03 1
27 8 1.683396e-09 -3.424371e-08 3.182498e-08 1.2150e-08 4.23e+03 1
28 1 6.653253e-09 -3.834864e-08 2.627118e-08 5.1500e-09 4.23e+03 1
29 2 1.178035e-08 -4.041643e-08 2.586682e-08 6.1500e-09 4.23e+03 1
30 9 1.235117e-08 -4.681779e-08 3.292958e-08 1.3150e-08 4.23e+03 1
31 8 6.121385e-09 -2.565026e-08 3.910375e-08 1.2150e-08 4.23e+03 1
32 2 2.105235e-08 -4.982793e-08 3.552143e-08 6.1500e-09 4.23e+03 1
